####################################################################### 
# 
# This file contains crystal structure data downloaded from the 
# Cambridge Structural Database (CSD) hosted by the Cambridge 
# Crystallographic Data Centre (CCDC).
# 
# Full information about CCDC data access policies and citation 
# guidelines are available at http://www.ccdc.cam.ac.uk/access/V1 
# 
# Audit and citation data items may have been added by the CCDC. 
# Please retain this information to preserve the provenance of 
# this file and to allow appropriate attribution of the data. 
# 
#######################################################################

data_ALWss1_publ
_audit_block_doi                 10.5517/ccxfmxv
_database_code_depnum_ccdc_archive 'CCDC 847258'
loop_
_citation_id
_citation_doi
_citation_year
1 10.1021/ja300655f 2012
2 10.1002/cssc.201100378 2012
_audit_update_record             
;
2012-07-25 deposited with the CCDC.	2023-07-02 downloaded from the CCDC.
;

_pd_block_id                     
2011-08-11T17:16|ALWss1|MIL53(Al)_close_form|MAR345

_audit_creation_method           'from EXP file using GSAS2CIF'
_audit_creation_date             2011-08-11T17:16

_refine_ls_shift/su_max          0.16
_refine_ls_shift/su_mean         0.04
_computing_structure_refinement  GSAS
_refine_ls_number_parameters     45
_refine_ls_goodness_of_fit_all   5.19
_refine_ls_number_restraints     0
_refine_ls_matrix_type           full

_pd_phase_name                   amino-MIL53(Al)_close_form
_cell_length_a                   19.7567(19)
_cell_length_b                   7.4814(9)
_cell_length_c                   6.5898(6)
_cell_angle_alpha                90.0
_cell_angle_beta                 105.731(8)
_cell_angle_gamma                90.0
_cell_volume                     937.53(19)
_symmetry_cell_setting           monoclinic
_symmetry_space_group_name_H-M   'C 1 c 1'

loop_
_symmetry_equiv_pos_site_id
_symmetry_equiv_pos_as_xyz
1 +x,+y,+z
2 +x,-y,+z+1/2
101 +x+1/2,+y+1/2,+z
102 +x+1/2,-y+1/2,+z+1/2

loop_
_atom_site_type_symbol
_atom_site_label
_atom_site_fract_x
_atom_site_fract_y
_atom_site_fract_z
_atom_site_occupancy
_atom_site_thermal_displace_type
_atom_site_U_iso_or_equiv
_atom_site_symmetry_multiplicity
Al Al1 0.0 0.0 0.0 1.0 Uiso 0.019(4) 4
C C2 0.7251(12) 0.2919(18) 0.289(5) 1.0 Uiso 0.0080(33) 4
C C3 0.7050(12) 0.2085(15) 0.627(5) 1.0 Uiso 0.0063(32) 4
C C4 0.6788(12) 0.2685(16) 0.417(5) 1.0 Uiso 0.0013(30) 4
C C5 0.7976(12) 0.2552(17) 0.371(5) 1.0 Uiso 0.0063(32) 4
C C6 0.7775(12) 0.1718(15) 0.709(5) 1.0 Uiso 0.0080(33) 4
C C7 0.8238(12) 0.1952(14) 0.581(5) 1.0 Uiso 0.0013(30) 4
C C8 0.6062(12) 0.3052(18) 0.335(5) 1.0 Uiso 0.0018(34) 4
O O9 0.5656(12) 0.2848(18) 0.447(5) 1.0 Uiso 0.003(4) 4
O O10 0.5832(12) 0.3579(20) 0.150(5) 1.0 Uiso 0.010(4) 4
C C11 0.8964(12) 0.1585(13) 0.663(5) 1.0 Uiso 0.0018(34) 4
O O12 0.9194(12) 0.1058(13) 0.848(5) 1.0 Uiso 0.010(4) 4
O O13 0.9370(12) 0.1789(15) 0.551(5) 1.0 Uiso 0.003(4) 4
N N14 0.6587(12) 0.1852(18) 0.755(5) 1.0 Uiso 0.022(7) 4
O O15 0.0036(20) 0.8845(17) 0.782(6) 1.0 Uiso 0.013(7) 4

_chemical_formula_sum            'C8 Al N O5'
_chemical_formula_weight         217.07
_cell_formula_units_Z            4

loop_
_atom_type_symbol
_atom_type_number_in_cell
_atom_type_scat_dispersion_real
_atom_type_scat_dispersion_imag
_atom_type_scat_Cromer_Mann_a1
_atom_type_scat_Cromer_Mann_a2
_atom_type_scat_Cromer_Mann_a3
_atom_type_scat_Cromer_Mann_a4
_atom_type_scat_Cromer_Mann_b1
_atom_type_scat_Cromer_Mann_b2
_atom_type_scat_Cromer_Mann_b3
_atom_type_scat_Cromer_Mann_b4
_atom_type_scat_Cromer_Mann_c
_atom_type_scat_source
Al 4.0 0.000 0.000 6.42020 3.03870 1.90020 0.74260 1.59360 31.5472 1.96460
85.0886 1.11510 International_Tables_Vol_C
C 32.0 0.000 0.000 2.31000 20.8439 1.02000 10.2075 1.58860 0.56870 0.86500
51.6512 0.21560 International_Tables_Vol_C
O 20.0 0.000 0.000 3.04850 13.2771 2.28680 5.70110 1.54630 0.32390 0.86700
32.9089 0.25080 International_Tables_Vol_C
N 4.0 0.000 0.000 12.2126 0.00570 3.13220 9.89330 2.01250 28.9975 1.16630
0.58260 -11.529 International_Tables_Vol_C
_diffrn_radiation_probe          x-ray
_diffrn_radiation_polarisn_ratio 0.95
_diffrn_radiation_wavelength     0.709659
_diffrn_radiation_type           ?
_pd_proc_ls_prof_R_factor        0.0246
_pd_proc_ls_prof_wR_factor       0.0327
_pd_proc_ls_prof_wR_expected     0.0064
_refine_ls_R_Fsqd_factor         0.10466

_pd_proc_ls_background_function  
; GSAS Background function number 1 with 18 terms.
Shifted Chebyshev function of 1st kind
1: 19559.3 2: -10523.9 3: 332.622 4: 3861.45
5: -2431.49 6: -1932.45 7: 2383.14 8: -1253.43
9: -1246.21 10: 1433.59 11: -491.213 12: -1043.12
13: 755.997 14: -456.848 15: -123.925 16: 474.587
17: -526.422 18: 199.842
;

_exptl_absorpt_process_details   
; GSAS Absorption/surface roughness correction: function number 0
Debye-Scherrer absorption correction
Term (= MU.r/wave) = 2.2000
Correction is not refined.
;
_exptl_absorpt_correction_T_min  0.08549
_exptl_absorpt_correction_T_max  0.09635
_gsas_exptl_extinct_corr_T_min   1.00000
_gsas_exptl_extinct_corr_T_max   1.00000

_pd_proc_ls_profile_function     
;
CW Profile function number 3 with 19 terms
Pseudovoigt profile coefficients as parameterized in
P. Thompson, D.E. Cox & J.B. Hastings (1987). J. Appl. Cryst.,20,79-83.
Asymmetry correction of L.W. Finger, D.E. Cox & A. P. Jephcoat (1994).
J. Appl. Cryst.,27,892-900.
#1(GU) = 365.142 #2(GV) = 17.529 #3(GW) = 0.367
#4(GP) = 16.317 #5(LX) = 1.619 #6(LY) = 0.000
#7(S/L) = 0.0022 #8(H/L) = 0.0053
#9(trns) = 0.00 #10(shft)= 0.0000
#11(stec)= 0.00 #12(ptec)= 0.00 #13(sfec)= 0.00
#14(L11) = -0.062 #15(L22) = 0.993 #16(L33) = -0.217
#17(L12) = 0.011 #18(L13) = -0.056 #19(L23) = -0.370
Peak tails are ignored where the intensity is below 0.0005 times the peak
Aniso. broadening axis 0.0 0.0 1.0
;
_pd_proc_ls_peak_cutoff          0.00050
_pd_proc_info_datetime           2011-08-11T17:16:23
_pd_calc_method                  'Rietveld Refinement'

_pd_meas_2theta_range_min        1.04912
_pd_meas_2theta_range_max        34.81187
_pd_meas_2theta_range_inc        0.02725
_pd_proc_2theta_range_min        1.06412
_pd_proc_2theta_range_max        34.82687
_pd_proc_2theta_range_inc        0.02725

_pd_meas_number_of_points        1240
_pd_proc_number_of_points        1240

loop_
_refln_index_h
_refln_index_k
_refln_index_l
_refln_observed_status
_refln_F_squared_meas
_refln_F_squared_calc
_refln_phase_calc
_refln_d_spacing
_gsas_i100_meas
2 0 0 o 3063.756 2801.838 28.84 9.50835 14.13
1 1 0 o 20557.754 20639.467 -11.60 6.96200 100.00
1 1 -1 o 16020.473 16814.572 176.71 4.93917 38.96
3 1 0 o 4074.423 4173.898 -6.05 4.83632 9.73
3 1 -1 o 182.775 60.565 -21.47 4.29845 0.33
1 1 1 o 1785.977 1894.197 -157.68 4.47293 3.56
4 0 0 o 1438.703 1143.250 -28.70 4.75417 1.66
0 2 0 o 17046.447 15525.526 180.00 3.74070 11.85
2 2 0 o 8896.191 8771.084 -23.43 3.48100 10.96
2 2 -1 o 178.891 186.547 -37.45 3.18804 0.18
0 2 1 o 11915.090 10153.361 -16.53 3.22211 12.48
5 1 -1 o 2346.970 3073.647 -21.97 3.34497 2.66
3 1 1 o 571.021 579.859 -170.08 3.51159 0.71
5 1 0 o 47.087 205.947 5.46 3.39038 0.08
2 0 -2 o 1608.885 1313.470 -15.43 3.28798 0.90
4 2 0 o 2477.371 2021.458 -6.30 2.93979 2.22
1 1 -2 o 251.117 233.438 49.79 3.00067 0.24
4 2 -1 o 1462.026 2917.374 12.36 2.85618 1.23
0 0 2 o 180.038 249.655 -133.01 3.17147 0.09
3 1 -2 o 2068.073 1669.445 9.18 2.94625 1.86
2 2 1 o 2461.652 1997.054 177.92 2.93140 2.14
4 0 -2 o -8.086 998.787 42.95 3.04712 0.02
6 0 0 o 90.979 129.865 -141.69 3.16945 0.04
1 3 0 o 5100.606 4011.758 151.89 2.47263 3.16
2 2 -2 o 2147.908 1688.507 28.38 2.46958 1.37
5 1 -2 o 1247.812 1213.634 -0.06 2.65875 0.93
1 3 -1 o 2838.623 3168.606 4.67 2.33176 1.60
2 0 2 o 5733.578 5893.797 -20.45 2.79004 2.30
1 1 2 o 1023.830 925.025 4.71 2.78376 0.83
3 3 0 o 468.115 543.203 -23.32 2.32067 0.27
4 2 -2 o 2708.223 3576.916 -8.66 2.36250 1.61
5 1 1 o 6423.304 6207.341 171.10 2.72844 4.89
7 1 -1 o 1346.336 1221.999 20.40 2.61043 0.94
3 3 -1 o 1015.289 1915.913 10.48 2.25273 0.55
6 2 -1 o 3337.332 3365.506 7.10 2.43327 2.04
4 2 1 o 3758.170 2773.646 -159.34 2.51144 2.43
6 2 0 o 2222.049 2092.961 1.23 2.41816 1.37
6 0 -2 o 953.715 1096.225 26.72 2.62591 0.35
1 3 1 o 1467.653 2920.334 -36.78 2.27677 0.80
7 1 0 o 98.863 25.451 -105.86 2.55353 0.07
0 2 2 o 911.335 876.645 9.70 2.41906 0.57
3 1 2 o 122.719 133.842 -87.14 2.43147 0.08
7 1 -2 o 233.823 365.647 2.34 2.29508 0.14
5 3 -1 o 2186.068 2133.624 19.78 2.07477 0.99
6 2 -2 o 1063.401 973.405 -18.78 2.14922 0.53
5 3 0 o 4516.139 4157.749 -11.07 2.08547 2.08
8 0 0 o 1307.937 1312.502 156.48 2.37709 0.37
4 0 2 o 119.163 196.845 7.61 2.35947 0.04
3 3 1 o 123.211 115.024 -86.95 2.11277 0.06
1 3 -2 o 3924.347 3859.840 1.34 1.98422 1.65
2 2 2 o 579.964 990.460 173.16 2.23647 0.29
3 3 -2 o 1196.705 1323.512 4.30 1.96824 0.50
3 1 -3 o 3368.309 3078.789 180.00 2.10355 1.56
1 1 -3 o 1324.071 1229.794 -177.27 2.08134 0.61
0 4 0 o 121.202 112.653 0.00 1.87035 0.02
6 2 1 o 5142.544 4848.167 -171.74 2.11837 2.41
8 0 -2 o 5714.361 4238.568 -165.60 2.21150 1.43
8 2 -1 o 907.583 835.038 -1.76 2.05268 0.40
5 3 -2 o 1713.577 1557.485 -0.23 1.87516 0.65
7 1 1 o 10470.237 9292.145 -168.21 2.18382 5.19
2 4 0 o 1036.011 1064.033 133.96 1.83518 0.36
2 4 -1 o 803.199 882.195 46.91 1.78804 0.28
5 1 -3 o 374.118 349.527 114.12 2.02750 0.16
2 2 -3 o 4006.396 3517.593 164.18 1.89236 1.52
8 2 0 o 8064.142 7013.412 4.40 2.00627 3.44
9 1 -1 o 756.744 687.180 23.79 2.10237 0.35
4 2 -3 o 2057.763 1889.267 168.70 1.87166 0.77
1 3 2 o 241.694 300.524 -117.72 1.91751 0.09
7 3 -1 o 2048.458 1975.345 -5.12 1.85798 0.75
5 1 2 o 502.369 473.747 -41.20 2.07895 0.23
0 4 1 o 5335.502 5785.165 164.88 1.79398 1.83
8 2 -2 o 4839.868 4762.823 4.29 1.90369 1.88
5 3 1 o 311.981 290.210 -112.40 1.89914 0.12
4 2 2 o 211.450 192.405 -38.83 1.99564 0.09
9 1 0 o 2499.756 2566.045 11.27 2.03342 1.11
4 4 -1 o 513.924 426.492 -5.08 1.72266 0.16
9 1 -2 o 506.550 561.684 166.05 1.95983 0.20
7 3 0 o 7184.306 7272.436 13.92 1.83713 2.61
4 4 0 o 934.078 1113.426 17.27 1.74050 0.31
2 4 1 o 3019.481 3538.162 -23.35 1.73875 0.98
6 0 2 o 188.684 173.268 -31.59 1.98845 0.04
7 1 -3 o 996.909 874.087 -170.17 1.88092 0.37
1 1 3 o 5666.142 6188.037 15.93 1.96946 2.31
7 3 -2 o 1375.062 1478.686 -14.37 1.73350 0.46
6 2 -3 o 320.701 357.345 167.32 1.78516 0.11
2 4 -2 o 914.402 882.962 -9.03 1.62572 0.27
3 3 2 o 1749.418 1889.571 15.71 1.79007 0.61
10 0 0 o 6410.249 6025.472 0.71 1.90167 1.24
4 4 -2 o 50.883 40.726 -10.27 1.59402 0.02
3 3 -3 o 624.056 500.955 139.49 1.64639 0.18
6 4 -1 o 137.540 134.815 -32.96 1.61523 0.04
10 0 -2 o 312.201 286.859 160.17 1.86978 0.06
1 3 -3 o 811.855 707.841 156.52 1.63567 0.23
0 2 3 o 1656.361 1634.883 21.23 1.84064 0.60
4 4 1 o 701.906 594.018 -3.98 1.63749 0.20
6 4 0 o 2163.119 2053.928 9.37 1.61079 0.62
10 2 -1 o 3.758 5.093 19.43 1.74637 0.00
5 3 -3 o 653.869 606.260 163.58 1.60915 0.18
9 3 -1 o 759.221 605.807 -156.74 1.64582 0.22
7 3 1 o 193.063 188.908 143.63 1.68403 0.06
8 2 1 o 2160.955 2349.056 165.37 1.79821 0.75
3 1 3 o 1401.212 1578.487 163.81 1.80508 0.49
9 1 1 o 1053.195 1180.610 -18.50 1.80433 0.36
8 2 -3 o 1473.561 1180.562 52.00 1.65692 0.44
6 4 -2 o 1383.371 1367.226 -10.25 1.52342 0.36
7 1 2 o 910.549 1111.141 -11.65 1.77971 0.32
1 5 0 o 736.962 813.968 -10.55 1.49167 0.19
0 4 2 o 4603.847 4437.463 -20.25 1.61106 1.31
10 2 -2 o 513.444 217.175 4.88 1.67248 0.16
9 1 -3 o 4551.514 4463.191 4.46 1.70456 1.42
6 2 2 o 958.214 1222.032 -2.11 1.75580 0.33
11 1 -1 o 103.178 142.224 -73.83 1.74644 0.03
7 3 -3 o 570.679 635.440 73.19 1.53287 0.15
2 2 3 o 333.814 367.033 -21.50 1.73241 0.11
1 5 -1 o 17.936 18.338 109.47 1.45899 0.00
9 3 -2 o 7238.972 6879.899 -11.49 1.57469 1.98
10 2 0 o 446.276 487.569 30.40 1.69519 0.15
9 3 0 o 158.544 157.203 -3.83 1.61211 0.05
5 3 2 o 1893.759 1692.583 39.82 1.63451 0.56
2 4 2 o 3420.327 4583.243 13.22 1.55357 0.93
3 5 -1 o 129.643 132.837 137.95 1.43901 0.03
8 0 2 o 433.363 487.024 -95.44 1.69438 0.07
3 5 0 o 364.208 371.039 60.78 1.45626 0.09
11 1 0 o 3021.014 3469.920 10.17 1.68440 0.95
11 1 -2 o 10.696 11.022 171.23 1.68316 0.00
3 1 -4 o 606.927 563.372 -25.24 1.60853 0.18
6 4 1 o 255.059 227.722 -11.68 1.51231 0.06
8 4 -1 o 328.135 358.848 -104.17 1.48786 0.08
5 1 -4 o 2750.959 2173.654 -4.97 1.59157 0.77
4 0 -4 o 1285.223 994.155 -37.33 1.64399 0.19
1 1 -4 o 404.449 394.094 -41.56 1.58048 0.11
2 4 -3 o 87.221 80.088 -44.64 1.42329 0.02
1 5 1 o 2284.369 2508.368 114.42 1.44522 0.53
2 0 -4 o 98.073 80.190 -19.79 1.63785 0.02
4 4 -3 o 124.779 95.883 100.35 1.41442 0.03
1 3 3 o 552.964 545.289 -168.12 1.57967 0.15
5 5 -1 o 455.622 396.963 -152.83 1.38920 0.10
8 4 0 o 145.339 154.467 -98.52 1.46990 0.03
8 4 -2 o 1012.465 933.726 -8.23 1.42809 0.24
5 1 3 o 823.814 864.728 -173.61 1.62623 0.24
1 5 -2 o 326.850 317.573 -25.36 1.36101 0.07
4 2 -4 o 1380.248 1287.642 16.20 1.50505 0.35
2 2 -4 o 914.344 911.668 -15.46 1.50033 0.23
3 5 -2 o 320.373 299.771 -35.01 1.35582 0.07
10 2 -3 o 563.609 495.594 12.99 1.51303 0.14
5 5 0 o 353.703 320.731 53.84 1.39240 0.08
6 0 -4 o 1439.858 1149.875 -29.63 1.60263 0.20
12 0 -2 o 269.115 208.234 43.15 1.60185 0.04
7 1 -4 o 765.588 870.466 -14.08 1.53361 0.21
4 2 3 o 921.050 704.172 151.65 1.59445 0.25
3 5 1 o 294.736 235.031 -29.67 1.40044 0.06
6 2 -4 o 2764.253 2766.171 2.47 1.47313 0.67
0 0 4 o 299.298 261.600 66.72 1.58574 0.04
6 4 -3 o 326.431 270.459 60.10 1.37596 0.07
9 3 -3 o 595.278 565.150 156.25 1.43282 0.14
12 0 0 o 5726.087 5152.509 0.60 1.58472 0.79
4 4 2 o 3100.122 3405.618 19.08 1.46570 0.75
5 5 -2 o 187.340 194.783 -27.63 1.32424 0.04
11 3 -1 o 107.221 107.367 157.50 1.45742 0.03
9 3 1 o 1716.902 2086.374 167.29 1.49056 0.42
10 2 1 o 81.033 107.595 -76.08 1.54710 0.02
11 1 -3 o 606.766 686.249 45.46 1.52889 0.16
11 3 -2 o 2119.673 1959.342 10.21 1.42003 0.48
8 2 2 o 2028.677 2511.035 2.47 1.54343 0.54
9 1 2 o 53.564 64.491 -58.51 1.53903 0.02
3 3 3 o 127.767 157.472 -27.02 1.49098 0.03
7 5 -1 o 1836.333 1845.335 -151.68 1.31814 0.36
12 2 -2 o 95.477 97.451 10.56 1.47252 0.02
3 3 -4 o 1544.451 1294.270 25.77 1.37435 0.33
12 2 -1 o 7.834 7.134 69.18 1.50659 0.00
11 1 1 o 30.289 35.490 43.91 1.53076 0.01
7 3 2 o 468.699 424.632 20.45 1.47659 0.12
8 0 -4 o 1884.075 1847.925 0.38 1.52356 0.25
5 3 -4 o 55.816 55.451 53.05 1.36373 0.01
8 2 -4 o 1899.497 1251.303 -0.17 1.41101 0.43
1 1 4 o 717.160 609.900 29.10 1.51394 0.19
10 4 -1 o 163.922 159.271 -161.31 1.35796 0.03
1 3 -4 o 1388.982 1322.182 18.36 1.35673 0.29
5 5 1 o 372.465 385.673 -28.24 1.33260 0.08
2 0 4 o 4238.334 4262.907 18.08 1.49956 0.53
8 4 1 o 132.585 101.407 -82.79 1.38190 0.03
7 5 0 o 630.368 576.403 -103.63 1.31063 0.12
9 1 -4 o 2451.845 2850.292 -4.59 1.44685 0.58
11 3 0 o 69.119 66.077 -74.21 1.42078 0.02
1 5 2 o 8290.945 9235.475 4.18 1.33890 1.70
13 1 -1 o 86.702 105.552 8.53 1.48806 0.02
0 4 3 o 379.138 294.799 -152.39 1.40089 0.08
8 4 -3 o 491.253 470.355 -159.69 1.31460 0.10
7 3 -4 o 2917.774 3051.860 6.94 1.32674 0.59
7 5 -2 o 822.817 823.082 5.03 1.27140 0.16
10 4 -2 o 4727.029 4963.310 -7.73 1.32233 0.95
10 0 2 o 38.577 44.196 -119.52 1.46513 0.00
0 6 0 o 1536.784 1373.877 0.00 1.24690 0.14
13 1 -2 o 336.385 351.429 14.03 1.46219 0.08
0 2 4 o 1317.838 1314.130 6.61 1.45997 0.32
12 2 0 o 841.615 834.266 15.05 1.45918 0.20
6 4 2 o 1008.384 1025.909 33.43 1.36237 0.22
7 1 3 o 137.602 135.175 100.41 1.45639 0.03
2 6 -1 o 403.985 395.092 -162.83 1.22159 0.07
6 2 3 o 329.165 357.045 143.84 1.45000 0.08
2 6 0 o 565.480 492.407 -6.73 1.23631 0.10
3 5 -3 o 117.313 102.823 -42.86 1.23581 0.02
10 4 0 o 117.441 122.786 -55.68 1.33347 0.02
1 5 -3 o 459.315 439.394 -40.37 1.23126 0.08
12 2 -3 o 56.959 50.429 -159.90 1.37164 0.01
13 1 0 o 2963.643 2866.695 5.69 1.43564 0.69
3 5 2 o 2697.514 2835.162 9.45 1.29322 0.53
11 3 -3 o 237.287 252.611 -147.51 1.32368 0.05
2 4 3 o 439.009 373.070 149.94 1.35136 0.09
5 5 -3 o 104.819 100.709 23.99 1.21983 0.02
3 1 4 o 2875.303 2877.743 11.53 1.42223 0.66
10 0 -4 o 3408.617 3375.847 -9.08 1.42221 0.39
0 6 1 o 1153.872 1162.175 15.19 1.22348 0.20
10 2 -4 o 206.306 211.171 -8.22 1.32937 0.04
9 5 -1 o 797.505 695.682 -23.74 1.23557 0.14
4 4 -4 o 181.532 159.232 30.97 1.23479 0.03
5 3 3 o 213.543 164.105 56.95 1.38535 0.05
2 4 -4 o 1133.793 1060.816 30.58 1.23218 0.20
4 0 4 o 5189.065 5259.159 4.26 1.39502 0.57
14 0 -2 o 192.367 206.622 -24.85 1.39274 0.02
2 2 4 o 30.156 31.049 80.78 1.39188 0.01
10 4 -3 o 486.427 411.829 -178.64 1.23919 0.09
9 3 -4 o 109.881 111.777 -172.27 1.26936 0.02
7 5 1 o 471.706 456.396 -19.84 1.25149 0.09
6 4 -4 o 718.107 679.704 130.48 1.21698 0.12
11 1 -4 o 1322.795 1289.917 -4.64 1.34553 0.28
13 1 -3 o 490.698 471.021 173.88 1.36901 0.10
10 2 2 o 2249.041 2335.809 2.55 1.36422 0.48
13 3 -2 o 456.883 394.296 13.02 1.27968 0.09
9 5 0 o 106.982 103.507 -59.33 1.22111 0.02
13 3 -1 o 9.244 8.999 19.09 1.29691 0.00
14 0 0 o 3818.270 3946.274 14.15 1.35834 0.40
4 4 3 o 203.019 175.617 -17.08 1.28274 0.04
11 3 1 o 144.651 157.081 -140.30 1.32489 0.03
12 2 1 o 206.503 165.502 -32.53 1.35030 0.04
11 1 2 o 714.863 612.859 -15.54 1.34745 0.15
12 4 -1 o 62.676 53.485 175.25 1.23564 0.01
9 3 2 o 5943.080 5987.370 4.60 1.33024 1.20
5 1 -5 o 2069.622 2172.393 -157.32 1.29533 0.39
3 1 -5 o 27.891 30.239 -44.09 1.29456 0.01
10 4 1 o 1067.008 1048.946 166.82 1.25770 0.19
5 5 2 o 1617.486 1588.752 -7.81 1.23076 0.29
12 4 -2 o 2796.453 2632.476 -4.96 1.21663 0.49
13 1 1 o 449.618 491.302 -10.50 1.32630 0.09
14 2 -2 o 1194.397 1059.123 26.75 1.30521 0.23
8 4 2 o 977.982 1012.287 50.44 1.25572 0.18
4 2 -5 o 161.100 135.546 -112.24 1.24305 0.03
5 1 4 o 2700.208 2874.761 11.64 1.31923 0.54
1 3 4 o 962.808 898.121 -8.09 1.31394 0.19
14 2 -1 o 263.171 274.712 -5.21 1.31834 0.05
7 1 -5 o 3333.776 3598.755 -1.90 1.27267 0.62
1 1 -5 o 92.163 101.326 -11.58 1.27048 0.02
8 2 3 o 111.329 101.088 170.66 1.31304 0.02
12 0 -4 o 2525.772 2285.890 -14.76 1.31295 0.25
6 2 -5 o 368.768 332.256 173.89 1.23322 0.06
2 2 -5 o 332.473 314.371 -49.78 1.23189 0.06
4 2 4 o 334.980 295.762 29.94 1.30709 0.07
9 1 3 o 1459.750 1306.546 172.90 1.30530 0.28
13 3 -3 o 168.290 158.226 -169.11 1.21581 0.03
12 2 -4 o 25.582 20.645 -15.36 1.23886 0.01
13 3 0 o 84.253 70.925 -107.67 1.26177 0.02
15 1 -1 o 2237.204 2668.767 11.99 1.29373 0.43
15 1 -2 o 1689.279 1478.964 18.20 1.28607 0.32
6 0 4 o 4906.980 4263.806 9.84 1.28552 0.47
12 0 2 o 163.291 139.290 -22.70 1.28512 0.02
14 2 -3 o 341.702 282.492 159.53 1.24193 0.06
14 2 0 o 398.592 364.498 -33.01 1.27676 0.08
7 3 3 o 135.921 130.868 34.22 1.27578 0.03
9 1 -5 o 144.802 149.430 -9.73 1.23004 0.03
3 3 4 o 188.634 195.016 172.10 1.25263 0.03
15 1 0 o 937.614 879.503 0.73 1.24996 0.17
13 1 -4 o 709.021 581.822 -14.84 1.24120 0.13
15 1 -3 o 299.141 320.366 -172.86 1.22957 0.05
16 0 -2 o 9799.058 11631.943 8.17 1.22770 0.86
1 1 5 o 186.821 220.092 -81.48 1.22675 0.03
6 2 4 o 190.171 178.854 -10.08 1.21573 0.03
7 1 4 o 1498.578 1412.324 7.98 1.21544 0.26
12 2 2 o 337.998 317.924 -24.42 1.21539 0.06
