####################################################################### 
# 
# This file contains crystal structure data downloaded from the 
# Cambridge Structural Database (CSD) hosted by the Cambridge 
# Crystallographic Data Centre (CCDC).
# 
# Full information about CCDC data access policies and citation 
# guidelines are available at http://www.ccdc.cam.ac.uk/access/V1 
# 
# Audit and citation data items may have been added by the CCDC. 
# Please retain this information to preserve the provenance of 
# this file and to allow appropriate attribution of the data. 
# 
#######################################################################

data_Fe-MIL-88_NH2
_audit_block_doi                 10.5517/ccpqxt3
_database_code_depnum_ccdc_archive 'CCDC 647646'
loop_
_citation_id
_citation_doi
_citation_year
1 10.1021/ic800538r 2008
_audit_update_record             
;
2007-05-16 deposited with the CCDC.	2023-06-17 downloaded from the CCDC.
;

_audit_creation_method           'Created with Diamond v2.0'
_audit_creation_date             07-02-12
_chemical_formula_sum            'Fe6 O50.912 C48 Br2 N6'
_chemical_formula_weight         1970.012
_cell_length_a                   11.1075(10)
_cell_length_b                   11.1075(10)
_cell_length_c                   19.0925(10)
_cell_angle_alpha                90.000
_cell_angle_beta                 90.000
_cell_angle_gamma                120.000
_cell_volume                     2040.0(3)
_symmetry_int_tables_number      194
_symmetry_space_group_name_H-M   'P 63/m m c'
_symmetry_space_group_name_Hall  -P_6c_2c
_cell_measurement_temperature    298
_pd_spec_mount_mode              transmission

# 7. EXPERIMENTAL DATA

_exptl_special_details           'rotating disc'


# The following item is used to identify the equipment used to record
# the powder pattern when the diffractogram was measured at a laboratory
# other than the authors' home institution, e.g. when neutron or synchrotron
# radiation is used.

_pd_instr_location               
; ?
;
_pd_calibration_special_details  
# description of the method used
# to calibrate the instrument
; ?
;

_diffrn_detector                 
;
linear position sensitive detector
;
_diffrn_detector_type            
;
STOE linear PSD
;

_pd_meas_scan_method             step
_diffrn_radiation_wavelength     1.5406
_diffrn_radiation_monochromator  Ge

# The following four items give details of the measured (not processed)
# powder pattern. Angles are in degrees.
_pd_meas_2theta_range_min        6.0
_pd_meas_2theta_range_max        80.0
_pd_meas_2theta_range_inc        0.01


# The next three items are given as text.

_pd_proc_ls_profile_function     'pseudo Voigt'
_pd_proc_ls_background_function  constant
_pd_proc_ls_pref_orient_corr     none

_pd_proc_ls_prof_R_factor        22.9
_pd_proc_ls_prof_wR_factor       11.3
_pd_proc_ls_prof_wR_expected     ?
_refine_ls_R_I_factor            ?
_refine_ls_R_Fsqd_factor         10.3
_refine_ls_R_factor_all          11.2

# The following items are used to identify the programs used.

_computing_data_collection       'STOE winxpow'
_computing_cell_refinement       'STOE winxpow'
_computing_data_reduction        ?
_computing_structure_solution    ?
_computing_structure_refinement  WinPLOTR
_computing_molecular_graphics    Diamond
_computing_publication_material  ?


loop_
_atom_type_symbol
_atom_type_oxidation_number
_atom_type_radius_bond
Fe ? 1.200
O ? 0.660
C ? 0.860
Br ? 1.200
N ? 0.800


loop_
_atom_site_label
_atom_site_type_symbol
_atom_site_fract_x
_atom_site_fract_y
_atom_site_fract_z
_atom_site_occupancy
_atom_site_symmetry_multiplicity
_atom_site_Wyckoff_symbol
_atom_site_attached_hydrogens
_atom_site_calc_flag
_atom_site_thermal_displace_type
_atom_site_u_iso_or_equiv
Fe Fe 0.7672 0.5344 0.7500 1.000 6 h ? d Uiso 0.00000
O1 O 0.6667 0.3333 0.7500 1.000 2 c ? d Uiso 0.00000
O2 O 0.6525 0.5526 0.8255 1.000 24 l ? d Uiso 0.00000
O3 O 0.8640 0.7278 0.7500 1.000 6 h ? d Uiso 0.00000
C1 C 0.5399 0.4601 0.8555 1.000 12 k ? d Uiso 0.00000
C2 C 0.5121 0.4878 0.9278 1.000 12 k ? d Uiso 0.00000
C3 C 0.3942 0.3792 0.9661 1.000 24 l ? d Uiso 0.00000
N N 0.2606 0.2829 0.9276 0.250 24 l ? d Uiso 0.00000



