####################################################################### 
# 
# This file contains crystal structure data downloaded from the 
# Cambridge Structural Database (CSD) hosted by the Cambridge 
# Crystallographic Data Centre (CCDC).
# 
# Full information about CCDC data access policies and citation 
# guidelines are available at http://www.ccdc.cam.ac.uk/access/V1 
# 
# Audit and citation data items may have been added by the CCDC. 
# Please retain this information to preserve the provenance of 
# this file and to allow appropriate attribution of the data. 
# 
#######################################################################

data_Ce
_audit_block_doi                 10.5517/ccdc.csd.cc1nd7bm
_database_code_depnum_ccdc_archive 'CCDC 1531100'
loop_
_citation_id
_citation_doi
_citation_year
1 10.1038/s41598-017-06858-w 2017
_audit_update_record             
;
2017-02-06 deposited with the CCDC.	2023-07-03 downloaded from the CCDC.
;
_audit_creation_date             2017-01-20
_audit_creation_method           
;
Olex2 1.2
(compiled 2016.09.09 svn.r3337 for OlexSys, GUI svn.r5227)
;
_chemical_name_common            ?
_chemical_name_systematic        
;
 ? 
;
_chemical_formula_moiety         '0.13(C384 Ce24 N47.81 O192), 8.97(O)'
_chemical_formula_sum            'C48 Ce3 N5.98 O32.98'
_chemical_formula_weight         1608.37
_chemical_melting_point          ?
loop_
_atom_type_symbol
_atom_type_description
_atom_type_scat_dispersion_real
_atom_type_scat_dispersion_imag
_atom_type_scat_source
C C 0.0033 0.0016 'International Tables Vol C Tables 4.2.6.8 and 6.1.1.4'
Ce Ce -0.2486 2.6331 'International Tables Vol C Tables 4.2.6.8 and 6.1.1.4'
N N 0.0061 0.0033 'International Tables Vol C Tables 4.2.6.8 and 6.1.1.4'
O O 0.0106 0.0060 'International Tables Vol C Tables 4.2.6.8 and 6.1.1.4'

_space_group_crystal_system      cubic
_space_group_IT_number           206
_space_group_name_H-M_alt        'I a -3'
_space_group_name_Hall           '-I 2b 2c 3'
loop_
_space_group_symop_id
_space_group_symop_operation_xyz
1 'x, y, z'
2 'z, x, y'
3 'y, z, x'
4 '-y, -z+1/2, x'
5 'z, -x, -y+1/2'
6 '-y+1/2, z, -x'
7 '-z, -x+1/2, y'
8 '-z+1/2, x, -y'
9 'y, -z, -x+1/2'
10 '-x, -y+1/2, z'
11 'x, -y, -z+1/2'
12 '-x+1/2, y, -z'
13 'x+1/2, y+1/2, z+1/2'
14 'z+1/2, x+1/2, y+1/2'
15 'y+1/2, z+1/2, x+1/2'
16 '-y+1/2, -z+1, x+1/2'
17 'z+1/2, -x+1/2, -y+1'
18 '-y+1, z+1/2, -x+1/2'
19 '-z+1/2, -x+1, y+1/2'
20 '-z+1, x+1/2, -y+1/2'
21 'y+1/2, -z+1/2, -x+1'
22 '-x+1/2, -y+1, z+1/2'
23 'x+1/2, -y+1/2, -z+1'
24 '-x+1, y+1/2, -z+1/2'
25 '-x, -y, -z'
26 '-z, -x, -y'
27 '-y, -z, -x'
28 'y, z-1/2, -x'
29 '-z, x, y-1/2'
30 'y-1/2, -z, x'
31 'z, x-1/2, -y'
32 'z-1/2, -x, y'
33 '-y, z, x-1/2'
34 'x, y-1/2, -z'
35 '-x, y, z-1/2'
36 'x-1/2, -y, z'
37 '-x+1/2, -y+1/2, -z+1/2'
38 '-z+1/2, -x+1/2, -y+1/2'
39 '-y+1/2, -z+1/2, -x+1/2'
40 'y+1/2, z, -x+1/2'
41 '-z+1/2, x+1/2, y'
42 'y, -z+1/2, x+1/2'
43 'z+1/2, x, -y+1/2'
44 'z, -x+1/2, y+1/2'
45 '-y+1/2, z+1/2, x'
46 'x+1/2, y, -z+1/2'
47 '-x+1/2, y+1/2, z'
48 'x, -y+1/2, z+1/2'

_cell_length_a                   26.9532(7)
_cell_length_b                   26.9532(7)
_cell_length_c                   26.9532(7)
_cell_angle_alpha                90.00
_cell_angle_beta                 90.00
_cell_angle_gamma                90.00
_cell_volume                     19580.8(8)
_cell_formula_units_Z            8
_cell_measurement_reflns_used    2023
_cell_measurement_temperature    120.00(10)
_cell_measurement_theta_max      28.8644
_cell_measurement_theta_min      2.8220
_exptl_absorpt_coefficient_mu    1.432
_exptl_absorpt_correction_T_max  1.00000
_exptl_absorpt_correction_T_min  0.83389
_exptl_absorpt_correction_type   multi-scan
_exptl_absorpt_process_details   
;
CrysAlisPro, Agilent Technologies,
Version 1.171.35.15 (release 03-08-2011 CrysAlis171 .NET)
(compiled Aug  3 2011,13:03:54)
Empirical absorption correction using spherical harmonics,
 implemented in SCALE3 ABSPACK scaling algorithm.
;
_exptl_crystal_colour            ?
_exptl_crystal_density_diffrn    1.091
_exptl_crystal_density_meas      ?
_exptl_crystal_density_method    'not measured'
_exptl_crystal_description       ?
_exptl_crystal_F_000             6142
_exptl_crystal_size_max          ?
_exptl_crystal_size_mid          ?
_exptl_crystal_size_min          ?
_exptl_special_details           
;
 ? 
;
_diffrn_reflns_av_R_equivalents  0.0616
_diffrn_reflns_av_unetI/netI     0.0894
_diffrn_reflns_limit_h_max       31
_diffrn_reflns_limit_h_min       -12
_diffrn_reflns_limit_k_max       16
_diffrn_reflns_limit_k_min       -32
_diffrn_reflns_limit_l_max       18
_diffrn_reflns_limit_l_min       -21
_diffrn_reflns_number            7840
_diffrn_reflns_theta_full        25.01
_diffrn_reflns_theta_max         25.01
_diffrn_reflns_theta_min         3.21
_diffrn_ambient_temperature      120.00(10)
_diffrn_detector_area_resol_mean 16.2116
_diffrn_measured_fraction_theta_full 0.990
_diffrn_measured_fraction_theta_max 0.990
_diffrn_measurement_details      
;
#__ type_ start__ end____ width___ exp.time_
  1 omega  -12.00   38.00   1.0000  150.0000
omega____ theta____ kappa____ phi______ frames
    -       18.9396  -57.0000   30.0000 50
;
_diffrn_measurement_device_type  'SuperNova, Single source at offset), Eos'
_diffrn_measurement_method       '\w scans'
_diffrn_orient_matrix_UB_11      0.0164595000
_diffrn_orient_matrix_UB_12      -0.0032293000
_diffrn_orient_matrix_UB_13      -0.0202082000
_diffrn_orient_matrix_UB_21      0.0179728000
_diffrn_orient_matrix_UB_22      -0.0102523000
_diffrn_orient_matrix_UB_23      0.0163243000
_diffrn_orient_matrix_UB_31      -0.0098003000
_diffrn_orient_matrix_UB_32      -0.0240582000
_diffrn_orient_matrix_UB_33      -0.0042838000
_diffrn_radiation_monochromator  mirror
_diffrn_radiation_type           MoK\a
_diffrn_radiation_wavelength     0.71073
_diffrn_source                   'SuperNova (Mo) X-ray Source'
_diffrn_standards_decay_%        ?
_diffrn_standards_interval_count ?
_diffrn_standards_interval_time  ?
_diffrn_standards_number         ?
_reflns_number_gt                1694
_reflns_number_total             2860
_reflns_odcompleteness_completeness 99.61
_reflns_odcompleteness_iscentric 1
_reflns_odcompleteness_theta     26.32
_reflns_threshold_expression     >2sigma(I)
_computing_cell_refinement       
;
CrysAlisPro, Agilent Technologies,
Version 1.171.35.15 (release 03-08-2011 CrysAlis171 .NET)
(compiled Aug  3 2011,13:03:54)
;
_computing_data_collection       
;
CrysAlisPro, Agilent Technologies,
Version 1.171.35.15 (release 03-08-2011 CrysAlis171 .NET)
(compiled Aug  3 2011,13:03:54)
;
_computing_data_reduction        
;
CrysAlisPro, Agilent Technologies,
Version 1.171.35.15 (release 03-08-2011 CrysAlis171 .NET)
(compiled Aug  3 2011,13:03:54)
;
_computing_molecular_graphics    'Olex2 (Dolomanov et al., 2009)'
_computing_publication_material  'Olex2 (Dolomanov et al., 2009)'
_computing_structure_refinement  'XL (Sheldrick, 2008)'
_computing_structure_solution    'XS (Sheldrick, 2008)'
_refine_diff_density_max         1.526
_refine_diff_density_min         -0.754
_refine_diff_density_rms         0.132
_refine_ls_extinction_coef       ?
_refine_ls_extinction_method     none
_refine_ls_goodness_of_fit_ref   1.069
_refine_ls_hydrogen_treatment    undef
_refine_ls_matrix_type           full
_refine_ls_number_parameters     174
_refine_ls_number_reflns         2860
_refine_ls_number_restraints     38
_refine_ls_R_factor_all          0.1225
_refine_ls_R_factor_gt           0.0680
_refine_ls_restrained_S_all      1.065
_refine_ls_shift/su_max          0.001
_refine_ls_shift/su_mean         0.000
_refine_ls_structure_factor_coef Fsqd
_refine_ls_weighting_details     
'calc w=1/[\s^2^(Fo^2^)+(0.0841P)^2^+106.7312P] where P=(Fo^2^+2Fc^2^)/3'
_refine_ls_weighting_scheme      calc
_refine_ls_wR_factor_gt          0.1641
_refine_ls_wR_factor_ref         0.2072
_refine_special_details          
;
 Refinement of F^2^ against ALL reflections.  The weighted R-factor wR and 
 goodness of fit S are based on F^2^, conventional R-factors R are based 
 on F, with F set to zero for negative F^2^. The threshold expression of 
 F^2^ > 2sigma(F^2^) is used only for calculating R-factors(gt) etc. and is 
 not relevant to the choice of reflections for refinement.  R-factors based 
 on F^2^ are statistically about twice as large as those based on F, and R- 
 factors based on ALL data will be even larger. 
;
_olex2_refinement_description    
;
1. Uiso/Uaniso restraints and constraints
C4 \\sim C3 \\sim N2 \\sim N1: within 2A with sigma of 0.01 and sigma for
terminal atoms of 0.01
Uanis(O7) \\sim Ueq, Uanis(O6) \\sim Ueq: with sigma of 0.01 and sigma for
terminal atoms of 0.01
Uanis(O0AA) \\sim Ueq: with sigma of 0.01 and sigma for terminal atoms of 0.01
Uanis(O7) = Uanis(O6)
2. Others
 1*[Sof(N3)]+1*[Sof(N2)]+1*[Sof(N1)]=1 with esd of 0.01
 1*[Sof(O7)]+1*[Sof(O6)]=0.5 with esd of 0.01
 Fixed Sof: O5(0.5) O0AA(0.5)
;
_atom_sites_solution_hydrogens   geom
_atom_sites_solution_primary     direct
_atom_sites_solution_secondary   difmap
loop_
_atom_site_label
_atom_site_type_symbol
_atom_site_fract_x
_atom_site_fract_y
_atom_site_fract_z
_atom_site_U_iso_or_equiv
_atom_site_adp_type
_atom_site_occupancy
_atom_site_calc_flag
_atom_site_disorder_assembly
_atom_site_disorder_group
_atom_site_site_symmetry_order
_atom_site_refinement_flags_posn
_atom_site_refinement_flags_adp
_atom_site_refinement_flags_occupancy
Ce1 Ce 0.414592(16) 0.085408(16) -0.085408(16) 0.0461(2) Uani 1 d . . 3 S T P
Ce2 Ce 0.5000 0.0000 0.0000 0.0400(2) Uani 1 d . . 6 S T P
O4 O 0.17664(19) 0.1081(2) 0.0824(2) 0.0665(17) Uani 1 d . . 1 . . .
O2 O 0.41571(17) 0.05220(18) 0.00113(17) 0.0479(13) Uani 1 d . . 1 . . .
O3 O 0.15970(19) 0.02737(19) 0.0840(2) 0.0592(15) Uani 1 d . . 1 . . .
C8 C 0.1902(3) 0.0626(3) 0.0797(3) 0.056(2) Uani 1 d . . 1 . . .
O1 O 0.40945(19) -0.0234(2) 0.0302(2) 0.0765(19) Uani 1 d . . 1 . . .
C5 C 0.2435(3) 0.0518(3) 0.0690(3) 0.052(2) Uani 1 d . . 1 . . .
C1 C 0.3915(3) 0.0196(3) 0.0236(3) 0.058(2) Uani 1 d . . 1 . . .
C6 C 0.2761(3) 0.0895(3) 0.0584(3) 0.063(2) Uani 1 d . . 1 . . .
C4 C 0.2593(3) 0.0027(3) 0.0653(4) 0.070(2) Uani 1 d . . 1 . U .
C7 C 0.3259(3) 0.0777(3) 0.0424(3) 0.062(2) Uani 1 d . . 1 . . .
C2 C 0.3408(3) 0.0302(3) 0.0407(3) 0.057(2) Uani 1 d . . 1 . . .
C3 C 0.3078(3) -0.0079(3) 0.0528(4) 0.071(2) Uani 1 d . . 1 . U .
N2 N 0.2300(8) -0.0385(8) 0.0761(9) 0.076(4) Uani 0.318(11) d . . 1 . U .
N3 N 0.2643(9) 0.1412(10) 0.0574(13) 0.118(11) Uani 0.344(10) d . . 1 . . .
N1 N 0.3171(8) -0.0602(9) 0.0459(9) 0.080(4) Uani 0.334(11) d . . 1 . U .
O5 O 0.1380(5) -0.0782(5) 0.0584(5) 0.098(5) Uani 0.50 d . . 1 . . .
O6 O 0.1434(9) 0.2142(9) 0.1794(9) 0.094(4) Uani 0.265(8) d . . 1 . U .
O7 O 0.1695(3) 0.1695(3) 0.1695(3) 0.094(4) Uani 0.692(17) d . . 3 S TU P
O0AA O 0.2003(13) 0.3412(14) 0.1964(12) 0.266(9) Uani 0.50 d . . 1 . U .

loop_
_atom_site_aniso_label
_atom_site_aniso_U_11
_atom_site_aniso_U_22
_atom_site_aniso_U_33
_atom_site_aniso_U_23
_atom_site_aniso_U_13
_atom_site_aniso_U_12
Ce1 0.0461(2) 0.0461(2) 0.0461(2) -0.0021(2) 0.0021(2) -0.0021(2)
Ce2 0.0400(2) 0.0400(2) 0.0400(2) -0.0021(3) 0.0021(3) -0.0021(3)
O4 0.047(3) 0.060(3) 0.093(4) -0.005(3) 0.008(3) 0.003(3)
O2 0.046(3) 0.056(3) 0.042(3) -0.002(2) 0.004(2) -0.002(2)
O3 0.050(3) 0.053(3) 0.075(4) 0.009(3) 0.013(3) 0.001(3)
C8 0.049(4) 0.068(5) 0.050(5) 0.009(4) 0.008(4) 0.009(4)
O1 0.051(3) 0.077(4) 0.101(5) 0.022(4) 0.019(3) 0.002(3)
C5 0.044(4) 0.059(5) 0.054(5) -0.003(4) 0.001(4) 0.002(4)
C1 0.051(5) 0.058(5) 0.064(5) 0.007(4) 0.009(4) 0.007(4)
C6 0.045(4) 0.062(5) 0.082(6) -0.002(5) -0.001(4) -0.001(4)
C4 0.056(4) 0.061(4) 0.093(5) 0.019(4) 0.024(4) 0.001(4)
C7 0.053(5) 0.072(6) 0.062(5) 0.001(4) 0.011(4) 0.001(4)
C2 0.054(5) 0.058(5) 0.059(5) 0.004(4) 0.006(4) 0.005(4)
C3 0.056(4) 0.062(4) 0.097(5) 0.015(4) 0.029(4) 0.010(4)
N2 0.055(7) 0.066(8) 0.106(8) 0.017(7) 0.027(7) 0.003(7)
N3 0.057(15) 0.088(19) 0.21(3) -0.01(2) 0.014(18) 0.017(13)
N1 0.063(8) 0.073(8) 0.105(8) 0.014(8) 0.025(7) 0.010(7)
O5 0.086(9) 0.130(11) 0.079(9) -0.011(8) -0.019(7) 0.045(8)
O6 0.095(6) 0.096(6) 0.092(6) -0.011(5) -0.018(5) 0.000(5)
O7 0.095(6) 0.096(6) 0.092(6) -0.011(5) -0.018(5) 0.000(5)
O0AA 0.268(11) 0.268(11) 0.261(12) 0.003(8) -0.011(8) 0.013(8)

_geom_special_details            
;
 All esds (except the esd in the dihedral angle between two l.s. planes) 
 are estimated using the full covariance matrix.  The cell esds are taken 
 into account individually in the estimation of esds in distances, angles 
 and torsion angles; correlations between esds in cell parameters are only 
 used when they are defined by crystal symmetry.  An approximate (isotropic) 
 treatment of cell esds is used for estimating esds involving l.s. planes. 
;
loop_
_geom_bond_atom_site_label_1
_geom_bond_atom_site_label_2
_geom_bond_distance
_geom_bond_site_symmetry_2
_geom_bond_publ_flag
Ce1 O4 2.536(5) 12 ?
Ce1 O4 2.536(5) 6 ?
Ce1 O4 2.536(5) 8 ?
Ce1 O2 2.499(5) 17_554 ?
Ce1 O2 2.499(5) 16_544 ?
Ce1 O2 2.499(5) . ?
Ce1 O3 2.541(5) 8 ?
Ce1 O3 2.541(5) 12 ?
Ce1 O3 2.541(5) 6 ?
Ce1 C8 2.895(8) 8 ?
Ce1 C8 2.895(8) 12 ?
Ce1 C8 2.895(8) 6 ?
Ce2 O2 2.672(5) 41_545 ?
Ce2 O2 2.672(5) 17_554 ?
Ce2 O2 2.672(5) . ?
Ce2 O2 2.672(5) 40 ?
Ce2 O2 2.672(5) 25_655 ?
Ce2 O2 2.672(5) 16_544 ?
Ce2 O1 2.649(5) 17_554 ?
Ce2 O1 2.649(5) 16_544 ?
Ce2 O1 2.649(5) 41_545 ?
Ce2 O1 2.649(5) 25_655 ?
Ce2 O1 2.649(5) 40 ?
Ce2 O1 2.649(5) . ?
O4 Ce1 2.536(5) 7 ?
O4 C8 1.282(10) . ?
O2 C1 1.251(9) . ?
O3 Ce1 2.541(5) 7 ?
O3 C8 1.263(9) . ?
C8 Ce1 2.895(8) 7 ?
C8 C5 1.492(10) . ?
O1 C1 1.268(9) . ?
C5 C6 1.372(11) . ?
C5 C4 1.396(11) . ?
C1 C2 1.470(11) . ?
C6 C7 1.446(11) . ?
C6 N3 1.43(3) . ?
C4 C3 1.380(11) . ?
C4 N2 1.39(2) . ?
C7 C2 1.344(11) . ?
C2 C3 1.396(11) . ?
C3 N1 1.44(2) . ?
O6 O7 1.42(3) . ?
O7 O6 1.42(3) 3 ?
O7 O6 1.42(3) 2 ?

loop_
_geom_angle_atom_site_label_1
_geom_angle_atom_site_label_2
_geom_angle_atom_site_label_3
_geom_angle
_geom_angle_site_symmetry_1
_geom_angle_site_symmetry_3
_geom_angle_publ_flag
O4 Ce1 O4 78.73(19) 8 12 ?
O4 Ce1 O4 78.73(19) 8 6 ?
O4 Ce1 O4 78.73(19) 12 6 ?
O4 Ce1 O3 51.98(17) 8 8 ?
O4 Ce1 O3 78.71(17) 12 8 ?
O4 Ce1 O3 128.75(18) 6 8 ?
O4 Ce1 O3 51.98(17) 12 12 ?
O4 Ce1 O3 78.71(17) 6 12 ?
O4 Ce1 O3 78.71(17) 8 6 ?
O4 Ce1 O3 128.75(18) 8 12 ?
O4 Ce1 O3 128.75(18) 12 6 ?
O4 Ce1 O3 51.98(17) 6 6 ?
O4 Ce1 C8 26.2(2) 6 6 ?
O4 Ce1 C8 104.5(2) 8 12 ?
O4 Ce1 C8 104.5(2) 6 8 ?
O4 Ce1 C8 79.0(2) 8 6 ?
O4 Ce1 C8 104.5(2) 12 6 ?
O4 Ce1 C8 26.2(2) 8 8 ?
O4 Ce1 C8 79.0(2) 6 12 ?
O4 Ce1 C8 26.2(2) 12 12 ?
O4 Ce1 C8 79.0(2) 12 8 ?
O2 Ce1 O4 153.74(17) 16_544 8 ?
O2 Ce1 O4 153.74(17) . 6 ?
O2 Ce1 O4 93.92(16) 16_544 6 ?
O2 Ce1 O4 93.92(16) 17_554 8 ?
O2 Ce1 O4 124.93(17) 16_544 12 ?
O2 Ce1 O4 124.93(17) 17_554 6 ?
O2 Ce1 O4 153.74(17) 17_554 12 ?
O2 Ce1 O4 93.92(16) . 12 ?
O2 Ce1 O4 124.93(17) . 8 ?
O2 Ce1 O2 69.51(17) 17_554 . ?
O2 Ce1 O2 69.51(17) . 16_544 ?
O2 Ce1 O2 69.51(17) 17_554 16_544 ?
O2 Ce1 O3 77.01(16) 16_544 6 ?
O2 Ce1 O3 72.99(16) 17_554 6 ?
O2 Ce1 O3 72.99(16) 16_544 12 ?
O2 Ce1 O3 136.29(16) 17_554 12 ?
O2 Ce1 O3 77.01(16) 17_554 8 ?
O2 Ce1 O3 77.01(16) . 12 ?
O2 Ce1 O3 136.29(16) 16_544 8 ?
O2 Ce1 O3 136.29(16) . 6 ?
O2 Ce1 O3 72.99(16) . 8 ?
O2 Ce1 C8 98.7(2) . 8 ?
O2 Ce1 C8 98.7(2) 17_554 6 ?
O2 Ce1 C8 152.79(19) 16_544 8 ?
O2 Ce1 C8 83.46(19) . 12 ?
O2 Ce1 C8 83.46(19) 16_544 6 ?
O2 Ce1 C8 152.79(19) 17_554 12 ?
O2 Ce1 C8 83.46(19) 17_554 8 ?
O2 Ce1 C8 152.79(19) . 6 ?
O2 Ce1 C8 98.7(2) 16_544 12 ?
O3 Ce1 O3 119.18(4) 8 12 ?
O3 Ce1 O3 119.18(4) 8 6 ?
O3 Ce1 O3 119.18(4) 12 6 ?
O3 Ce1 C8 98.56(19) 8 12 ?
O3 Ce1 C8 25.82(19) 12 12 ?
O3 Ce1 C8 129.75(18) 6 12 ?
O3 Ce1 C8 25.82(19) 8 8 ?
O3 Ce1 C8 129.75(18) 8 6 ?
O3 Ce1 C8 98.56(19) 12 6 ?
O3 Ce1 C8 129.75(18) 12 8 ?
O3 Ce1 C8 25.82(19) 6 6 ?
O3 Ce1 C8 98.56(19) 6 8 ?
C8 Ce1 C8 104.33(19) 8 6 ?
C8 Ce1 C8 104.33(19) 8 12 ?
C8 Ce1 C8 104.33(19) 12 6 ?
O2 Ce2 O2 64.42(16) 17_554 16_544 ?
O2 Ce2 O2 180.0 17_554 41_545 ?
O2 Ce2 O2 115.58(16) 40 17_554 ?
O2 Ce2 O2 115.58(16) 41_545 16_544 ?
O2 Ce2 O2 64.42(16) 41_545 25_655 ?
O2 Ce2 O2 64.42(16) 40 41_545 ?
O2 Ce2 O2 115.58(16) 17_554 25_655 ?
O2 Ce2 O2 64.42(16) . 16_544 ?
O2 Ce2 O2 115.58(16) 40 . ?
O2 Ce2 O2 180.0(2) . 25_655 ?
O2 Ce2 O2 115.58(16) 16_544 25_655 ?
O2 Ce2 O2 180.0(2) 40 16_544 ?
O2 Ce2 O2 64.42(16) 40 25_655 ?
O2 Ce2 O2 64.42(16) 17_554 . ?
O2 Ce2 O2 115.58(16) . 41_545 ?
O1 Ce2 O2 112.01(16) 41_545 40 ?
O1 Ce2 O2 103.09(17) . 40 ?
O1 Ce2 O2 48.59(16) . . ?
O1 Ce2 O2 103.09(17) 25_655 16_544 ?
O1 Ce2 O2 112.01(16) 17_554 16_544 ?
O1 Ce2 O2 103.09(17) 17_554 25_655 ?
O1 Ce2 O2 103.09(17) 41_545 . ?
O1 Ce2 O2 76.91(17) 16_544 17_554 ?
O1 Ce2 O2 48.59(16) 25_655 25_655 ?
O1 Ce2 O2 48.59(16) 17_554 17_554 ?
O1 Ce2 O2 131.41(16) 40 16_544 ?
O1 Ce2 O2 76.91(17) 41_545 25_655 ?
O1 Ce2 O2 76.91(17) . 16_544 ?
O1 Ce2 O2 103.09(17) 40 17_554 ?
O1 Ce2 O2 48.59(16) 16_544 16_544 ?
O1 Ce2 O2 67.99(16) 41_545 16_544 ?
O1 Ce2 O2 76.91(17) 25_655 40 ?
O1 Ce2 O2 131.41(16) 16_544 40 ?
O1 Ce2 O2 67.99(16) 40 . ?
O1 Ce2 O2 48.59(16) 41_545 41_545 ?
O1 Ce2 O2 112.01(16) 40 25_655 ?
O1 Ce2 O2 67.99(16) . 41_545 ?
O1 Ce2 O2 131.41(16) . 25_655 ?
O1 Ce2 O2 76.91(17) 40 41_545 ?
O1 Ce2 O2 131.41(16) 25_655 . ?
O1 Ce2 O2 131.41(16) 17_554 41_545 ?
O1 Ce2 O2 67.99(16) 17_554 40 ?
O1 Ce2 O2 112.01(16) . 17_554 ?
O1 Ce2 O2 48.59(16) 40 40 ?
O1 Ce2 O2 112.01(16) 25_655 41_545 ?
O1 Ce2 O2 112.01(16) 16_544 . ?
O1 Ce2 O2 131.41(16) 41_545 17_554 ?
O1 Ce2 O2 67.99(16) 25_655 17_554 ?
O1 Ce2 O2 76.91(17) 17_554 . ?
O1 Ce2 O2 67.99(16) 16_544 25_655 ?
O1 Ce2 O2 103.09(17) 16_544 41_545 ?
O1 Ce2 O1 115.43(9) 17_554 . ?
O1 Ce2 O1 115.43(9) 40 41_545 ?
O1 Ce2 O1 115.43(9) 17_554 16_544 ?
O1 Ce2 O1 64.57(9) 25_655 16_544 ?
O1 Ce2 O1 115.43(9) 25_655 41_545 ?
O1 Ce2 O1 64.57(9) . 41_545 ?
O1 Ce2 O1 64.57(9) 40 . ?
O1 Ce2 O1 180.0(4) 40 16_544 ?
O1 Ce2 O1 115.43(9) . 16_544 ?
O1 Ce2 O1 64.57(9) 41_545 16_544 ?
O1 Ce2 O1 180.0(4) 25_655 . ?
O1 Ce2 O1 64.57(9) 17_554 25_655 ?
O1 Ce2 O1 115.43(9) 40 25_655 ?
O1 Ce2 O1 180.0(3) 17_554 41_545 ?
O1 Ce2 O1 64.57(9) 17_554 40 ?
C8 O4 Ce1 92.7(4) . 7 ?
Ce1 O2 Ce2 100.85(15) . . ?
C1 O2 Ce1 134.2(5) . . ?
C1 O2 Ce2 94.6(5) . . ?
C8 O3 Ce1 92.9(4) . 7 ?
O4 C8 Ce1 61.0(4) . 7 ?
O4 C8 C5 118.2(7) . . ?
O3 C8 Ce1 61.2(4) . 7 ?
O3 C8 O4 121.9(7) . . ?
O3 C8 C5 119.8(7) . . ?
C5 C8 Ce1 171.8(5) . 7 ?
C1 O1 Ce2 95.2(5) . . ?
C6 C5 C8 120.8(7) . . ?
C6 C5 C4 119.5(7) . . ?
C4 C5 C8 119.5(7) . . ?
O2 C1 Ce2 61.2(4) . . ?
O2 C1 O1 120.7(7) . . ?
O2 C1 C2 120.0(7) . . ?
O1 C1 Ce2 60.2(4) . . ?
O1 C1 C2 119.2(7) . . ?
C2 C1 Ce2 173.6(6) . . ?
C5 C6 C7 119.7(8) . . ?
C5 C6 N3 125.7(12) . . ?
N3 C6 C7 114.4(12) . . ?
C3 C4 C5 120.1(8) . . ?
C3 C4 N2 115.0(11) . . ?
N2 C4 C5 124.7(11) . . ?
C2 C7 C6 119.8(8) . . ?
C7 C2 C1 118.3(7) . . ?
C7 C2 C3 120.1(8) . . ?
C3 C2 C1 121.5(7) . . ?
C4 C3 C2 120.6(8) . . ?
C4 C3 N1 113.4(11) . . ?
C2 C3 N1 125.1(11) . . ?
O6 O7 O6 110.7(11) 2 . ?
O6 O7 O6 110.7(11) . 3 ?
O6 O7 O6 110.7(11) 2 3 ?

loop_
_geom_torsion_atom_site_label_1
_geom_torsion_atom_site_label_2
_geom_torsion_atom_site_label_3
_geom_torsion_atom_site_label_4
_geom_torsion
_geom_torsion_site_symmetry_1
_geom_torsion_site_symmetry_2
_geom_torsion_site_symmetry_3
_geom_torsion_site_symmetry_4
_geom_torsion_publ_flag
Ce1 O4 C8 O3 -6.6(8) 7 . . . ?
Ce1 O4 C8 C5 170.7(6) 7 . . . ?
Ce1 O2 C1 Ce2 109.9(6) . . . . ?
Ce1 O2 C1 O1 100.1(9) . . . . ?
Ce1 O2 C1 C2 -77.3(10) . . . . ?
Ce1 O3 C8 O4 6.6(8) 7 . . . ?
Ce1 O3 C8 C5 -170.7(6) 7 . . . ?
Ce1 C8 C5 C6 77(4) 7 . . . ?
Ce1 C8 C5 C4 -97(4) 7 . . . ?
Ce2 O2 C1 O1 -9.8(8) . . . . ?
Ce2 O2 C1 C2 172.8(7) . . . . ?
Ce2 O1 C1 O2 9.9(9) . . . . ?
Ce2 O1 C1 C2 -172.6(7) . . . . ?
Ce2 C1 C2 C7 84(5) . . . . ?
Ce2 C1 C2 C3 -99(5) . . . . ?
O4 Ce1 O2 Ce2 -117.58(19) 8 . . . ?
O4 Ce1 O2 Ce2 91.1(4) 6 . . . ?
O4 Ce1 O2 Ce2 163.44(18) 12 . . . ?
O4 Ce1 O2 C1 -16.2(9) 6 . . . ?
O4 Ce1 O2 C1 56.1(7) 12 . . . ?
O4 Ce1 O2 C1 135.0(7) 8 . . . ?
O4 C8 C5 C6 -5.0(11) . . . . ?
O4 C8 C5 C4 -179.3(8) . . . . ?
O2 Ce1 O2 Ce2 -37.49(4) 17_554 . . . ?
O2 Ce1 O2 Ce2 37.49(4) 16_544 . . . ?
O2 Ce1 O2 C1 -144.9(7) 17_554 . . . ?
O2 Ce1 O2 C1 -69.9(7) 16_544 . . . ?
O2 Ce2 O2 Ce1 143.78(4) 40 . . . ?
O2 Ce2 O2 Ce1 36.22(4) 17_554 . . . ?
O2 Ce2 O2 Ce1 -143.78(4) 41_545 . . . ?
O2 Ce2 O2 Ce1 -36.22(4) 16_544 . . . ?
O2 Ce2 O2 Ce1 -54.3(6) 25_655 . . . ?
O2 Ce2 O2 C1 82.3(7) 25_655 . . . ?
O2 Ce2 O2 C1 100.4(5) 16_544 . . . ?
O2 Ce2 O2 C1 -7.2(5) 41_545 . . . ?
O2 Ce2 O2 C1 172.8(5) 17_554 . . . ?
O2 Ce2 O2 C1 -79.6(5) 40 . . . ?
O2 Ce2 O1 C1 -5.3(5) . . . . ?
O2 Ce2 O1 C1 107.4(5) 40 . . . ?
O2 Ce2 O1 C1 -72.6(5) 16_544 . . . ?
O2 Ce2 O1 C1 162.5(5) 41_545 . . . ?
O2 Ce2 O1 C1 174.7(5) 25_655 . . . ?
O2 Ce2 O1 C1 -17.5(5) 17_554 . . . ?
O2 Ce2 C1 O2 110.2(5) 40 . . . ?
O2 Ce2 C1 O2 -69.8(5) 16_544 . . . ?
O2 Ce2 C1 O2 173.5(5) 41_545 . . . ?
O2 Ce2 C1 O2 180.0 25_655 . . . ?
O2 Ce2 C1 O2 -6.5(5) 17_554 . . . ?
O2 Ce2 C1 O1 -79.6(5) 40 . . . ?
O2 Ce2 C1 O1 163.8(5) 17_554 . . . ?
O2 Ce2 C1 O1 100.4(5) 16_544 . . . ?
O2 Ce2 C1 O1 -16.2(5) 41_545 . . . ?
O2 Ce2 C1 O1 170.3(8) . . . . ?
O2 Ce2 C1 O1 -9.7(8) 25_655 . . . ?
O2 Ce2 C1 C2 77(5) 25_655 . . . ?
O2 Ce2 C1 C2 7(5) 40 . . . ?
O2 Ce2 C1 C2 -173(5) 16_544 . . . ?
O2 Ce2 C1 C2 -103(5) . . . . ?
O2 Ce2 C1 C2 71(5) 41_545 . . . ?
O2 Ce2 C1 C2 -109(5) 17_554 . . . ?
O2 C1 C2 C7 -15.5(12) . . . . ?
O2 C1 C2 C3 161.6(8) . . . . ?
O3 Ce1 O2 Ce2 -4.9(3) 6 . . . ?
O3 Ce1 O2 Ce2 113.94(18) 12 . . . ?
O3 Ce1 O2 Ce2 -119.63(19) 8 . . . ?
O3 Ce1 O2 C1 -112.3(7) 6 . . . ?
O3 Ce1 O2 C1 133.0(7) 8 . . . ?
O3 Ce1 O2 C1 6.6(7) 12 . . . ?
O3 C8 C5 C6 172.4(8) . . . . ?
O3 C8 C5 C4 -1.9(11) . . . . ?
C8 Ce1 O2 Ce2 30.5(5) 6 . . . ?
C8 Ce1 O2 Ce2 -117.12(19) 8 . . . ?
C8 Ce1 O2 Ce2 139.3(2) 12 . . . ?
C8 Ce1 O2 C1 -76.8(8) 6 . . . ?
C8 Ce1 O2 C1 135.5(7) 8 . . . ?
C8 Ce1 O2 C1 31.9(7) 12 . . . ?
C8 C5 C6 C7 -172.6(7) . . . . ?
C8 C5 C6 N3 1(2) . . . . ?
C8 C5 C4 C3 176.7(8) . . . . ?
C8 C5 C4 N2 -7.2(18) . . . . ?
O1 Ce2 O2 Ce1 153.9(2) 40 . . . ?
O1 Ce2 O2 Ce1 86.32(19) 17_554 . . . ?
O1 Ce2 O2 Ce1 -26.1(2) 16_544 . . . ?
O1 Ce2 O2 Ce1 -93.68(19) 41_545 . . . ?
O1 Ce2 O2 Ce1 -131.2(3) . . . . ?
O1 Ce2 O2 Ce1 48.8(3) 25_655 . . . ?
O1 Ce2 O2 C1 -69.5(5) 40 . . . ?
O1 Ce2 O2 C1 -174.6(5) 25_655 . . . ?
O1 Ce2 O2 C1 42.9(5) 41_545 . . . ?
O1 Ce2 O2 C1 5.4(5) . . . . ?
O1 Ce2 O2 C1 -137.1(5) 17_554 . . . ?
O1 Ce2 O2 C1 110.5(5) 16_544 . . . ?
O1 Ce2 O1 C1 77.0(5) 40 . . . ?
O1 Ce2 O1 C1 -144.2(6) 41_545 . . . ?
O1 Ce2 O1 C1 35.8(6) 17_554 . . . ?
O1 Ce2 O1 C1 -103.0(5) 16_544 . . . ?
O1 Ce2 O1 C1 -109.5(5) 25_655 . . . ?
O1 Ce2 C1 O2 41.8(5) 17_554 . . . ?
O1 Ce2 C1 O2 -170.3(8) . . . . ?
O1 Ce2 C1 O2 99.3(5) 40 . . . ?
O1 Ce2 C1 O2 -80.7(5) 16_544 . . . ?
O1 Ce2 C1 O2 -138.2(5) 41_545 . . . ?
O1 Ce2 C1 O2 9.7(8) 25_655 . . . ?
O1 Ce2 C1 O1 -148.0(5) 17_554 . . . ?
O1 Ce2 C1 O1 32.0(5) 41_545 . . . ?
O1 Ce2 C1 O1 -90.4(4) 40 . . . ?
O1 Ce2 C1 O1 180.0 25_655 . . . ?
O1 Ce2 C1 O1 89.6(4) 16_544 . . . ?
O1 Ce2 C1 C2 176(5) 16_544 . . . ?
O1 Ce2 C1 C2 -93(5) 25_655 . . . ?
O1 Ce2 C1 C2 -4(5) 40 . . . ?
O1 Ce2 C1 C2 119(5) 41_545 . . . ?
O1 Ce2 C1 C2 -61(5) 17_554 . . . ?
O1 Ce2 C1 C2 87(5) . . . . ?
O1 C1 C2 C7 167.1(8) . . . . ?
O1 C1 C2 C3 -15.9(13) . . . . ?
C5 C6 C7 C2 -3.9(13) . . . . ?
C5 C4 C3 C2 -4.1(15) . . . . ?
C5 C4 C3 N1 -174.4(13) . . . . ?
C1 C2 C3 C4 -175.1(9) . . . . ?
C1 C2 C3 N1 -6.1(18) . . . . ?
C6 C5 C4 C3 2.3(14) . . . . ?
C6 C5 C4 N2 178.4(15) . . . . ?
C6 C7 C2 C1 179.2(8) . . . . ?
C6 C7 C2 C3 2.1(13) . . . . ?
C4 C5 C6 C7 1.7(13) . . . . ?
C4 C5 C6 N3 175.6(19) . . . . ?
C7 C2 C3 C4 1.9(14) . . . . ?
C7 C2 C3 N1 170.9(14) . . . . ?
N2 C4 C3 C2 179.4(14) . . . . ?
N2 C4 C3 N1 9(2) . . . . ?
N3 C6 C7 C2 -178.5(17) . . . . ?

_olex2_submission_special_instructions 'No special instructions were received'
