####################################################################### 
# 
# This file contains crystal structure data downloaded from the 
# Cambridge Structural Database (CSD) hosted by the Cambridge 
# Crystallographic Data Centre (CCDC).
# 
# Full information about CCDC data access policies and citation 
# guidelines are available at http://www.ccdc.cam.ac.uk/access/V1 
# 
# Audit and citation data items may have been added by the CCDC. 
# Please retain this information to preserve the provenance of 
# this file and to allow appropriate attribution of the data. 
# 
#######################################################################

data_publication_text
_audit_block_doi                 10.5517/ccdc.csd.cc1mp1gt
_database_code_depnum_ccdc_archive 'CCDC 1509776'
loop_
_citation_id
_citation_doi
_citation_year
1 10.1021/acs.cgd.6b01512 2017
_audit_update_record             
;
2016-10-13 deposited with the CCDC.	2023-06-17 downloaded from the CCDC.
;
_cell_length_a                   36.4514(18)
_cell_length_b                   36.4514(18)
_cell_length_c                   36.4514(18)
_cell_angle_alpha                90
_cell_angle_beta                 90
_cell_angle_gamma                90
_cell_volume                     48433.2(71)
_symmetry_cell_setting           cubic
_symmetry_space_group_name_H-M   f_d_-3_m
_symmetry_int_tables_number      227
_chemical_absolute_configuration ?
_symmetry_space_group_name_Hall  -f_4vw_2vw_3
loop_
_symmetry_equiv_pos_site_id
_symmetry_equiv_pos_as_xyz
1 x,y,z
2 -y,1/4+x,1/4+z
3 1/4-x,1/4-y,z
4 1/4+y,-x,1/4+z
5 1/4+x,-z,1/4+y
6 x,1/4-y,1/4-z
7 1/4+x,1/4+z,-y
8 1/4+z,1/4+y,-x
9 1/4-x,y,1/4-z
10 -z,1/4+y,1/4+x
11 z,x,y
12 y,z,x
13 1/4-y,1/4-z,x
14 z,1/4-x,1/4-y
15 1/4-y,z,1/4-x
16 1/4-z,1/4-x,y
17 1/4-z,x,1/4-y
18 y,1/4-z,1/4-x
19 1/4+y,1/4+x,-z
20 -y,-x,-z
21 -x,1/4+z,1/4+y
22 -x,-z,-y
23 1/4+z,-y,1/4+x
24 -z,-y,-x
25 -x,-y,-z
26 y,1/4-x,1/4-z
27 1/4+x,1/4+y,-z
28 1/4-y,x,1/4-z
29 1/4-x,z,1/4-y
30 -x,1/4+y,1/4+z
31 1/4-x,1/4-z,y
32 1/4-z,1/4-y,x
33 1/4+x,-y,1/4+z
34 z,1/4-y,1/4-x
35 -z,-x,-y
36 -y,-z,-x
37 1/4+y,1/4+z,-x
38 -z,1/4+x,1/4+y
39 1/4+y,-z,1/4+x
40 1/4+z,1/4+x,-y
41 1/4+z,-x,1/4+y
42 -y,1/4+z,1/4+x
43 1/4-y,1/4-x,z
44 y,x,z
45 x,1/4-z,1/4-y
46 x,z,y
47 1/4-z,y,1/4-x
48 z,y,x
49 x,1/2+y,1/2+z
50 -y,3/4+x,3/4+z
51 1/4-x,3/4-y,1/2+z
52 1/4+y,1/2-x,3/4+z
53 1/4+x,1/2-z,3/4+y
54 x,3/4-y,3/4-z
55 1/4+x,3/4+z,1/2-y
56 1/4+z,3/4+y,1/2-x
57 1/4-x,1/2+y,3/4-z
58 -z,3/4+y,3/4+x
59 z,1/2+x,1/2+y
60 y,1/2+z,1/2+x
61 1/4-y,3/4-z,1/2+x
62 z,3/4-x,3/4-y
63 1/4-y,1/2+z,3/4-x
64 1/4-z,3/4-x,1/2+y
65 1/4-z,1/2+x,3/4-y
66 y,3/4-z,3/4-x
67 1/4+y,3/4+x,1/2-z
68 -y,1/2-x,1/2-z
69 -x,3/4+z,3/4+y
70 -x,1/2-z,1/2-y
71 1/4+z,1/2-y,3/4+x
72 -z,1/2-y,1/2-x
73 -x,1/2-y,1/2-z
74 y,3/4-x,3/4-z
75 1/4+x,3/4+y,1/2-z
76 1/4-y,1/2+x,3/4-z
77 1/4-x,1/2+z,3/4-y
78 -x,3/4+y,3/4+z
79 1/4-x,3/4-z,1/2+y
80 1/4-z,3/4-y,1/2+x
81 1/4+x,1/2-y,3/4+z
82 z,3/4-y,3/4-x
83 -z,1/2-x,1/2-y
84 -y,1/2-z,1/2-x
85 1/4+y,3/4+z,1/2-x
86 -z,3/4+x,3/4+y
87 1/4+y,1/2-z,3/4+x
88 1/4+z,3/4+x,1/2-y
89 1/4+z,1/2-x,3/4+y
90 -y,3/4+z,3/4+x
91 1/4-y,3/4-x,1/2+z
92 y,1/2+x,1/2+z
93 x,3/4-z,3/4-y
94 x,1/2+z,1/2+y
95 1/4-z,1/2+y,3/4-x
96 z,1/2+y,1/2+x
97 1/2+x,y,1/2+z
98 1/2-y,1/4+x,3/4+z
99 3/4-x,1/4-y,1/2+z
100 3/4+y,-x,3/4+z
101 3/4+x,-z,3/4+y
102 1/2+x,1/4-y,3/4-z
103 3/4+x,1/4+z,1/2-y
104 3/4+z,1/4+y,1/2-x
105 3/4-x,y,3/4-z
106 1/2-z,1/4+y,3/4+x
107 1/2+z,x,1/2+y
108 1/2+y,z,1/2+x
109 3/4-y,1/4-z,1/2+x
110 1/2+z,1/4-x,3/4-y
111 3/4-y,z,3/4-x
112 3/4-z,1/4-x,1/2+y
113 3/4-z,x,3/4-y
114 1/2+y,1/4-z,3/4-x
115 3/4+y,1/4+x,1/2-z
116 1/2-y,-x,1/2-z
117 1/2-x,1/4+z,3/4+y
118 1/2-x,-z,1/2-y
119 3/4+z,-y,3/4+x
120 1/2-z,-y,1/2-x
121 1/2-x,-y,1/2-z
122 1/2+y,1/4-x,3/4-z
123 3/4+x,1/4+y,1/2-z
124 3/4-y,x,3/4-z
125 3/4-x,z,3/4-y
126 1/2-x,1/4+y,3/4+z
127 3/4-x,1/4-z,1/2+y
128 3/4-z,1/4-y,1/2+x
129 3/4+x,-y,3/4+z
130 1/2+z,1/4-y,3/4-x
131 1/2-z,-x,1/2-y
132 1/2-y,-z,1/2-x
133 3/4+y,1/4+z,1/2-x
134 1/2-z,1/4+x,3/4+y
135 3/4+y,-z,3/4+x
136 3/4+z,1/4+x,1/2-y
137 3/4+z,-x,3/4+y
138 1/2-y,1/4+z,3/4+x
139 3/4-y,1/4-x,1/2+z
140 1/2+y,x,1/2+z
141 1/2+x,1/4-z,3/4-y
142 1/2+x,z,1/2+y
143 3/4-z,y,3/4-x
144 1/2+z,y,1/2+x
145 1/2+x,1/2+y,z
146 1/2-y,3/4+x,1/4+z
147 3/4-x,3/4-y,z
148 3/4+y,1/2-x,1/4+z
149 3/4+x,1/2-z,1/4+y
150 1/2+x,3/4-y,1/4-z
151 3/4+x,3/4+z,-y
152 3/4+z,3/4+y,-x
153 3/4-x,1/2+y,1/4-z
154 1/2-z,3/4+y,1/4+x
155 1/2+z,1/2+x,y
156 1/2+y,1/2+z,x
157 3/4-y,3/4-z,x
158 1/2+z,3/4-x,1/4-y
159 3/4-y,1/2+z,1/4-x
160 3/4-z,3/4-x,y
161 3/4-z,1/2+x,1/4-y
162 1/2+y,3/4-z,1/4-x
163 3/4+y,3/4+x,-z
164 1/2-y,1/2-x,-z
165 1/2-x,3/4+z,1/4+y
166 1/2-x,1/2-z,-y
167 3/4+z,1/2-y,1/4+x
168 1/2-z,1/2-y,-x
169 1/2-x,1/2-y,-z
170 1/2+y,3/4-x,1/4-z
171 3/4+x,3/4+y,-z
172 3/4-y,1/2+x,1/4-z
173 3/4-x,1/2+z,1/4-y
174 1/2-x,3/4+y,1/4+z
175 3/4-x,3/4-z,y
176 3/4-z,3/4-y,x
177 3/4+x,1/2-y,1/4+z
178 1/2+z,3/4-y,1/4-x
179 1/2-z,1/2-x,-y
180 1/2-y,1/2-z,-x
181 3/4+y,3/4+z,-x
182 1/2-z,3/4+x,1/4+y
183 3/4+y,1/2-z,1/4+x
184 3/4+z,3/4+x,-y
185 3/4+z,1/2-x,1/4+y
186 1/2-y,3/4+z,1/4+x
187 3/4-y,3/4-x,z
188 1/2+y,1/2+x,z
189 1/2+x,3/4-z,1/4-y
190 1/2+x,1/2+z,y
191 3/4-z,1/2+y,1/4-x
192 1/2+z,1/2+y,x

loop_
_atom_type_symbol
_atom_type_oxidation_number
_atom_type_radius_bond
Ce ? 1.200
O ? 1.200
C ? 1.200

loop_
_atom_site_label
_atom_site_type_symbol
_atom_site_symmetry_multiplicity
_atom_site_fract_x
_atom_site_fract_y
_atom_site_fract_z
_atom_site_occupancy
_atom_site_B_iso_or_equiv
Ce1 Ce 0 0.79970(10) 0.22670(15) 0.45030(10) 1 3.34(22)
O1 O 0 0.76430(45) 0.1809(12) 0.48570(45) 1 8.26(87)
O2 O 0 0.78865(87) 0.28865(87) 0.46135(87) 1 8.26(87)
C1 C 0 0.78307(47) 0.28307(47) 0.37678(63) 1 8.26(87)
C2 C 0 0.80313(44) 0.30313(44) 0.34938(74) 1 8.26(87)
C3 C 0 0.78782(67) 0.33345(51) 0.33345(51) 1 8.26(87)
O3 O 0 0.79959(36) 0.25634(30) 0.39018(42) 1 8.26(87)
O4 O 0 0.78140(42) 0.17500(48) 0.41160(69) 1 8.26(87)
Og2 O 0 0.875 0.375 0.375 1.00(12) 20.0(40)
Og3 O 0 0.82373(91) 0.14865(97) 0.35387(78) 0.795(31) 20.0(40)

_chemical_formula_moiety         'C144 Ce48 O256, 38.16(O2), 4(O)'
_chemical_formula_sum            'C144 Ce48 O336.32'
_chemical_formula_weight         13836.32
_diffrn_ambient_temperature      298
_diffrn_ambient_pressure         1013
_cell_measurement_temperature    298
_diffrn_radiation_probe          x-ray
_diffrn_radiation_type           'Cu K\a 1'
_diffrn_radiation_wavelength     1.54059
_diffrn_source_type              'STOE StadiP Mythen'
_diffrn_measured_fraction_theta_full 80
# start Validation Reply Form
_vrf_EXPT005_ALERT_1_A           
;
PROBLEM: _exptl_crystal_description is missing Crystal habit description.
RESPONSE: No Crystals observed. Rietveld refined structure.
;
_vrf_DIFF003_1_A                 
;
PROBLEM: _diffrn_measurement_device_type is missing
RESPONSE: No Crystals observed. Rietveld refined structure.
;
_vrf_ATOM007_1_A                 
;
PROBLEM: _atom_site_aniso_label_1 is missing
RESPONSE: Rietveld refined structure. Anisotropy meaningless.
;
_vrf_GEOM001_1_A                 
;
PROBLEM: _geom_bond_atom_site_label_1 is missing
RESPONSE: Geometry not given as model refined by the Rietveld method.
;
_vrf_GEOM003_1_A                 
;
PROBLEM: _geom_bond_distance is missing
RESPONSE: Geometry not given as model refined by the Rietveld method.
;
_vrf_GEOM006_1_A                 
;
PROBLEM: _geom_angle_atom_site_label_2 is missing
RESPONSE: Geometry not given as model refined by the Rietveld method.
;
_vrf_GEOM007_1_A                 
;
PROBLEM: _geom_angle_atom_site_label_3 is missing
RESPONSE: Geometry not given as model refined by the Rietveld method.
;
_vrf_PLAT043_ALERT_1_A           
;
PROBLEM: Calculated and Reported Mol. Weight Differ by...
RESPONSE: reported molecular weight is the calculated molecular weight withouth the hydrogen atoms since these cannot be refined by the Rietveld method.
;
_vrf_PLAT183_ALERT_1_A           
;
PROBLEM:  Missing _cell_measurement_reflns_used value
RESPONSE: No Crystals observed. Rietveld refined structure.
;
_vrf_PLAT184_ALERT_1_A           
;
PROBLEM:  Missing _cell_measurement_reflns_used value
RESPONSE: No Crystals observed. Rietveld refined structure.
;
_vrf_PLAT185_ALERT_1_A           
;
PROBLEM:  Missing _cell_measurement_reflns_used value
RESPONSE: No Crystals observed. Rietveld refined structure.
;
_vrf_PLAT602_ALERT_2_A           
;
PROBLEM:  VERY LARGE Solvent Accessible VOID(S) in Structure
RESPONSE: Structure is a porous structure. Electron densities were searched by fourier analysis and marked as OG.
;
_vrf_PLAT880_ALERT_1_A           
;
PROBLEM:  Missing datum for _diffrn_reflns_number
RESPONSE: No Crystals observed. Rietveld refined structure.
;
_vrf_PLAT242_ALERT_2_B           
;
PROBLEM:  Low 'MainMol' Ueq as Compared to Neighbors of Ce1
RESPONSE: Rietveld refined structure. Unique Ueq for all heavy atoms.
;
_vrf_PLAT306_ALERT_2_B           
;
PROBLEM:  Isolated Oxygen Atom (H-atoms Missing ?) Og2
RESPONSE: Electron densities were searched by fourier analysis and marked as OG. Hydrogen atoms cannot be refined by the Rietveld method.
;
_vrf_PLAT342_ALERT_3_B           
;
PROBLEM:  Low Bond Precision on  C-C Bonds ... 0.03
RESPONSE: Rietveld refined structure.
;
_vrf_PLAT241_ALERT_2_C           
;
PROBLEM:  High 'MainMol' Ueq as Compared to Neighbors of O3
RESPONSE: Rietveld refined structure. Unique Ueq for all light atoms.
;
# end Validation Reply Form
#END


_exptl_crystal_recrystallization_method 'solvothermal synthesis'
